<?xml version="1.0" encoding="UTF-8"?>

<!-- generated on 2023-03-18 09:16:36 by Eclipse SUMO sumo Version 1.15.0
<configuration xmlns:xsi="http://www.w3.org/2001/XMLSchema-instance" xsi:noNamespaceSchemaLocation="http://sumo.dlr.de/xsd/sumoConfiguration.xsd">

    <input>
        <net-file value="gym_sumo/envs/sumo_configs/intersection.net.xml"/>
        <route-files value="gym_sumo/envs/sumo_configs/intersection.rou.xml"/>
        <additional-files value="gym_sumo/envs/sumo_configs/router.xml"/>
    </input>

    <output>
        <fcd-output value="fcd0.xml"/>
        <statistic-output value="output.xml"/>
    </output>

    <time>
        <end value="100"/>
    </time>

    <processing>
        <lateral-resolution value="0.1"/>
        <ignore-route-errors value="true"/>
        <collision.action value="warn"/>
        <collision.check-junctions value="true"/>
        <collision.mingap-factor value="0"/>
        <time-to-teleport.disconnected value="1"/>
        <default.carfollowmodel value="IDM"/>
        <pedestrian.striping.dawdling value="0.5"/>
    </processing>

    <routing>
        <routing-algorithm value="astar"/>
        <device.rerouting.probability value="1"/>
        <device.rerouting.period value="1"/>
    </routing>

    <report>
        <no-warnings value="true"/>
        <no-step-log value="true"/>
    </report>

    <traci_server>
        <remote-port value="53898"/>
    </traci_server>

</configuration>
-->

<fcd-export xmlns:xsi="http://www.w3.org/2001/XMLSchema-instance" xsi:noNamespaceSchemaLocation="http://sumo.dlr.de/xsd/fcd_file.xsd">
    <timestep time="0.00">
        <vehicle id="f_0.0" x="-39.30" y="35.95" angle="90.52" type="DEFAULT_PEDTYPE" speed="0.00" pos="0.32" lane="E0_0" slope="0.00"/>
        <vehicle id="f_1.0" x="-38.07" y="37.44" angle="90.52" type="DEFAULT_BIKETYPE" speed="0.00" pos="1.70" lane="E0_1" slope="0.00"/>
        <vehicle id="f_18.0" x="149.49" y="59.69" angle="269.37" type="DEFAULT_PEDTYPE" speed="0.00" pos="0.32" lane="-E2_0" slope="0.00"/>
        <vehicle id="f_19.0" x="148.50" y="58.18" angle="269.37" type="DEFAULT_BIKETYPE" speed="0.00" pos="1.70" lane="-E2_1" slope="0.00"/>
        <vehicle id="f_2.0" x="-35.04" y="42.96" angle="90.52" type="DEFAULT_VEHTYPE" speed="0.00" pos="5.10" lane="E0_2" slope="0.00"/>
        <vehicle id="f_20.0" x="146.07" y="52.60" angle="269.37" type="DEFAULT_VEHTYPE" speed="0.00" pos="5.10" lane="-E2_2" slope="0.00"/>
        <vehicle id="f_27.0" x="50.03" y="120.49" angle="179.45" type="DEFAULT_PEDTYPE" speed="0.00" pos="0.32" lane="-E1_0" slope="0.00"/>
        <vehicle id="f_28.0" x="51.54" y="119.68" angle="179.45" type="DEFAULT_BIKETYPE" speed="0.00" pos="1.70" lane="-E1_1" slope="0.00"/>
        <vehicle id="f_29.0" x="57.11" y="117.70" angle="179.45" type="DEFAULT_VEHTYPE" speed="0.00" pos="5.10" lane="-E1_2" slope="0.00"/>
    </timestep>
    <timestep time="1.00">
        <vehicle id="f_0.0" x="-38.11" y="35.94" angle="90.52" type="DEFAULT_PEDTYPE" speed="1.36" pos="1.67" lane="E0_0" slope="0.00"/>
        <vehicle id="f_1.0" x="-37.02" y="37.00" angle="99.14" type="DEFAULT_BIKETYPE" speed="1.20" pos="2.90" lane="E0_1" slope="0.00"/>
        <vehicle id="f_18.0" x="148.50" y="59.68" angle="269.37" type="DEFAULT_PEDTYPE" speed="1.35" pos="1.66" lane="-E2_0" slope="0.00"/>
        <vehicle id="f_19.0" x="147.61" y="58.59" angle="277.99" type="DEFAULT_BIKETYPE" speed="1.20" pos="2.90" lane="-E2_1" slope="0.00"/>
        <vehicle id="f_2.0" x="-32.76" y="42.94" angle="90.52" type="DEFAULT_VEHTYPE" speed="2.60" pos="7.70" lane="E0_2" slope="0.00"/>
        <vehicle id="f_20.0" x="144.17" y="52.58" angle="269.37" type="DEFAULT_VEHTYPE" speed="2.60" pos="7.70" lane="-E2_2" slope="0.00"/>
        <vehicle id="f_27.0" x="50.04" y="119.68" angle="179.45" type="DEFAULT_PEDTYPE" speed="1.37" pos="1.68" lane="-E1_0" slope="0.00"/>
        <vehicle id="f_28.0" x="51.12" y="118.96" angle="188.07" type="DEFAULT_BIKETYPE" speed="1.20" pos="2.90" lane="-E1_1" slope="0.00"/>
        <vehicle id="f_29.0" x="57.12" y="116.15" angle="179.45" type="DEFAULT_VEHTYPE" speed="2.60" pos="7.70" lane="-E1_2" slope="0.00"/>
    </timestep>
    <timestep time="2.00">
        <vehicle id="f_0.0" x="-36.82" y="35.93" angle="90.52" type="DEFAULT_PEDTYPE" speed="1.47" pos="3.14" lane="E0_0" slope="0.00"/>
        <vehicle id="f_1.0" x="-34.94" y="36.98" angle="90.52" type="DEFAULT_BIKETYPE" speed="2.38" pos="5.28" lane="E0_1" slope="0.00"/>
        <vehicle id="f_18.0" x="147.44" y="59.66" angle="269.37" type="DEFAULT_PEDTYPE" speed="1.45" pos="3.12" lane="-E2_0" slope="0.00"/>
        <vehicle id="f_19.0" x="145.88" y="58.57" angle="269.37" type="DEFAULT_BIKETYPE" speed="2.37" pos="5.27" lane="-E2_1" slope="0.00"/>
        <vehicle id="f_2.0" x="-28.22" y="42.90" angle="90.52" type="DEFAULT_VEHTYPE" speed="5.17" pos="12.87" lane="E0_2" slope="0.00"/>
        <vehicle id="f_20.0" x="140.39" y="52.54" angle="269.37" type="DEFAULT_VEHTYPE" speed="5.17" pos="12.87" lane="-E2_2" slope="0.00"/>
        <vehicle id="f_27.0" x="50.05" y="118.78" angle="179.45" type="DEFAULT_PEDTYPE" speed="1.50" pos="3.19" lane="-E1_0" slope="0.00"/>
        <vehicle id="f_28.0" x="51.14" y="117.54" angle="179.45" type="DEFAULT_BIKETYPE" speed="2.38" pos="5.28" lane="-E1_1" slope="0.00"/>
        <vehicle id="f_29.0" x="57.15" y="113.07" angle="179.45" type="DEFAULT_VEHTYPE" speed="5.17" pos="12.87" lane="-E1_2" slope="0.00"/>
    </timestep>
    <timestep time="3.00">
        <vehicle id="f_0.0" x="-35.53" y="35.91" angle="90.52" type="DEFAULT_PEDTYPE" speed="1.47" pos="4.62" lane="E0_0" slope="0.00"/>
        <vehicle id="f_1.0" x="-31.94" y="36.96" angle="90.52" type="DEFAULT_BIKETYPE" speed="3.41" pos="8.69" lane="E0_1" slope="0.00"/>
        <vehicle id="f_18.0" x="146.38" y="59.65" angle="269.37" type="DEFAULT_PEDTYPE" speed="1.45" pos="4.57" lane="-E2_0" slope="0.00"/>
        <vehicle id="f_19.0" x="143.41" y="58.54" angle="269.37" type="DEFAULT_BIKETYPE" speed="3.37" pos="8.64" lane="-E2_1" slope="0.00"/>
        <vehicle id="f_2.0" x="-21.53" y="42.84" angle="90.52" type="DEFAULT_VEHTYPE" speed="7.62" pos="20.50" lane="E0_2" slope="0.00"/>
        <vehicle id="f_2.1" x="-35.04" y="42.96" angle="90.52" type="DEFAULT_VEHTYPE" speed="0.00" pos="5.10" lane="E0_2" slope="0.00"/>
        <vehicle id="f_20.0" x="134.84" y="52.48" angle="269.37" type="DEFAULT_VEHTYPE" speed="7.58" pos="20.45" lane="-E2_2" slope="0.00"/>
        <vehicle id="f_20.1" x="146.07" y="52.60" angle="269.37" type="DEFAULT_VEHTYPE" speed="0.00" pos="5.10" lane="-E2_2" slope="0.00"/>
        <vehicle id="f_27.0" x="50.06" y="117.89" angle="179.45" type="DEFAULT_PEDTYPE" speed="1.50" pos="4.69" lane="-E1_0" slope="0.00"/>
        <vehicle id="f_28.0" x="51.16" y="115.47" angle="179.45" type="DEFAULT_BIKETYPE" speed="3.47" pos="8.75" lane="-E1_1" slope="0.00"/>
        <vehicle id="f_29.0" x="57.20" y="108.57" angle="179.45" type="DEFAULT_VEHTYPE" speed="7.55" pos="20.42" lane="-E1_2" slope="0.00"/>
        <vehicle id="f_29.1" x="57.11" y="117.70" angle="179.45" type="DEFAULT_VEHTYPE" speed="0.00" pos="5.10" lane="-E1_2" slope="0.00"/>
    </timestep>
    <timestep time="4.00">
        <vehicle id="f_0.0" x="-34.24" y="35.90" angle="90.52" type="DEFAULT_PEDTYPE" speed="1.47" pos="6.09" lane="E0_0" slope="0.00"/>
        <vehicle id="f_1.0" x="-28.32" y="36.92" angle="90.52" type="DEFAULT_BIKETYPE" speed="4.13" pos="12.82" lane="E0_1" slope="0.00"/>
        <vehicle id="f_18.0" x="145.32" y="59.64" angle="269.37" type="DEFAULT_PEDTYPE" speed="1.45" pos="6.02" lane="-E2_0" slope="0.00"/>
        <vehicle id="f_19.0" x="140.48" y="58.51" angle="269.37" type="DEFAULT_BIKETYPE" speed="4.01" pos="12.65" lane="-E2_1" slope="0.00"/>
        <vehicle id="f_2.0" x="-13.02" y="42.76" angle="90.52" type="DEFAULT_VEHTYPE" speed="9.70" pos="30.20" lane="E0_2" slope="0.00"/>
        <vehicle id="f_2.1" x="-32.90" y="42.94" angle="90.52" type="DEFAULT_VEHTYPE" speed="2.44" pos="7.54" lane="E0_2" slope="0.00"/>
        <vehicle id="f_20.0" x="127.84" y="52.40" angle="269.37" type="DEFAULT_VEHTYPE" speed="9.56" pos="30.02" lane="-E2_2" slope="0.00"/>
        <vehicle id="f_20.1" x="144.29" y="52.58" angle="269.37" type="DEFAULT_VEHTYPE" speed="2.44" pos="7.54" lane="-E2_2" slope="0.00"/>
        <vehicle id="f_27.0" x="50.07" y="116.99" angle="179.45" type="DEFAULT_PEDTYPE" speed="1.50" pos="6.19" lane="-E1_0" slope="0.00"/>
        <vehicle id="f_28.0" x="51.18" y="112.91" angle="179.45" type="DEFAULT_BIKETYPE" speed="4.30" pos="13.06" lane="-E1_1" slope="0.00"/>
        <vehicle id="f_29.0" x="57.25" y="102.95" angle="179.45" type="DEFAULT_VEHTYPE" speed="9.44" pos="29.86" lane="-E1_2" slope="0.00"/>
        <vehicle id="f_29.1" x="57.12" y="116.25" angle="179.45" type="DEFAULT_VEHTYPE" speed="2.43" pos="7.53" lane="-E1_2" slope="0.00"/>
    </timestep>
    <timestep time="5.00">
        <vehicle id="f_0.0" x="-32.95" y="35.89" angle="90.52" type="DEFAULT_PEDTYPE" speed="1.47" pos="7.56" lane="E0_0" slope="0.00"/>
        <vehicle id="f_1.0" x="-24.40" y="36.89" angle="90.52" type="DEFAULT_BIKETYPE" speed="4.48" pos="17.29" lane="E0_1" slope="0.00"/>
        <vehicle id="f_18.0" x="144.25" y="59.63" angle="269.37" type="DEFAULT_PEDTYPE" speed="1.45" pos="7.47" lane="-E2_0" slope="0.00"/>
        <vehicle id="f_19.0" x="137.35" y="58.48" angle="269.37" type="DEFAULT_BIKETYPE" speed="4.28" pos="16.93" lane="-E2_1" slope="0.00"/>
        <vehicle id="f_2.0" x="-3.26" y="42.67" angle="90.52" type="DEFAULT_VEHTYPE" speed="11.12" pos="41.32" lane="E0_2" slope="0.00"/>
        <vehicle id="f_2.1" x="-28.56" y="42.90" angle="90.52" type="DEFAULT_VEHTYPE" speed="4.95" pos="12.48" lane="E0_2" slope="0.00"/>
        <vehicle id="f_20.0" x="119.92" y="52.31" angle="269.37" type="DEFAULT_VEHTYPE" speed="10.83" pos="40.84" lane="-E2_2" slope="0.00"/>
        <vehicle id="f_20.1" x="140.67" y="52.54" angle="269.37" type="DEFAULT_VEHTYPE" speed="4.95" pos="12.49" lane="-E2_2" slope="0.00"/>
        <vehicle id="f_27.0" x="50.07" y="116.09" angle="179.45" type="DEFAULT_PEDTYPE" speed="1.50" pos="7.70" lane="-E1_0" slope="0.00"/>
        <vehicle id="f_28.0" x="51.21" y="110.05" angle="179.45" type="DEFAULT_BIKETYPE" speed="4.79" pos="17.85" lane="-E1_1" slope="0.00"/>
        <vehicle id="f_29.0" x="57.31" y="96.64" angle="179.45" type="DEFAULT_VEHTYPE" speed="10.60" pos="40.46" lane="-E1_2" slope="0.00"/>
        <vehicle id="f_29.1" x="57.15" y="113.30" angle="179.45" type="DEFAULT_VEHTYPE" speed="4.95" pos="12.48" lane="-E1_2" slope="0.00"/>
    </timestep>
    <timestep time="6.00">
        <vehicle id="f_0.0" x="-31.66" y="35.88" angle="90.52" type="DEFAULT_PEDTYPE" speed="1.47" pos="9.03" lane="E0_0" slope="0.00"/>
        <vehicle id="f_1.0" x="-20.35" y="36.85" angle="90.52" type="DEFAULT_BIKETYPE" speed="4.61" pos="21.90" lane="E0_1" slope="0.00"/>
        <vehicle id="f_18.0" x="143.19" y="59.62" angle="269.37" type="DEFAULT_PEDTYPE" speed="1.45" pos="8.93" lane="-E2_0" slope="0.00"/>
        <vehicle id="f_19.0" x="134.15" y="58.44" angle="269.37" type="DEFAULT_BIKETYPE" speed="4.38" pos="21.31" lane="-E2_1" slope="0.00"/>
        <vehicle id="f_2.0" x="7.02" y="42.58" angle="90.52" type="DEFAULT_VEHTYPE" speed="11.72" pos="53.04" lane="E0_2" slope="0.00"/>
        <vehicle id="f_2.1" x="-22.15" y="42.84" angle="90.52" type="DEFAULT_VEHTYPE" speed="7.31" pos="19.79" lane="E0_2" slope="0.00"/>
        <vehicle id="f_2.2" x="-35.04" y="42.96" angle="90.52" type="DEFAULT_VEHTYPE" speed="0.00" pos="5.10" lane="E0_2" slope="0.00"/>
        <vehicle id="f_20.0" x="111.65" y="52.22" angle="269.37" type="DEFAULT_VEHTYPE" speed="11.31" pos="52.15" lane="-E2_2" slope="0.00"/>
        <vehicle id="f_20.1" x="135.26" y="52.48" angle="269.37" type="DEFAULT_VEHTYPE" speed="7.38" pos="19.87" lane="-E2_2" slope="0.00"/>
        <vehicle id="f_20.2" x="146.07" y="52.60" angle="269.37" type="DEFAULT_VEHTYPE" speed="0.00" pos="5.10" lane="-E2_2" slope="0.00"/>
        <vehicle id="f_27.0" x="50.08" y="115.20" angle="179.45" type="DEFAULT_PEDTYPE" speed="1.50" pos="9.20" lane="-E1_0" slope="0.00"/>
        <vehicle id="f_28.0" x="51.24" y="107.06" angle="179.45" type="DEFAULT_BIKETYPE" speed="5.02" pos="22.87" lane="-E1_1" slope="0.00"/>
        <vehicle id="f_29.0" x="57.37" y="89.98" angle="179.45" type="DEFAULT_VEHTYPE" speed="11.17" pos="51.63" lane="-E1_2" slope="0.00"/>
        <vehicle id="f_29.1" x="57.19" y="108.90" angle="179.45" type="DEFAULT_VEHTYPE" speed="7.39" pos="19.87" lane="-E1_2" slope="0.00"/>
        <vehicle id="f_29.2" x="57.11" y="117.70" angle="179.45" type="DEFAULT_VEHTYPE" speed="0.00" pos="5.10" lane="-E1_2" slope="0.00"/>
    </timestep>
    <timestep time="7.00">
        <vehicle id="f_0.0" x="-30.36" y="35.87" angle="90.52" type="DEFAULT_PEDTYPE" speed="1.47" pos="10.50" lane="E0_0" slope="0.00"/>
        <vehicle id="f_1.0" x="-16.27" y="36.82" angle="90.52" type="DEFAULT_BIKETYPE" speed="4.65" pos="26.55" lane="E0_1" slope="0.00"/>
        <vehicle id="f_18.0" x="142.13" y="59.61" angle="269.37" type="DEFAULT_PEDTYPE" speed="1.45" pos="10.38" lane="-E2_0" slope="0.00"/>
        <vehicle id="f_19.0" x="130.93" y="58.41" angle="269.37" type="DEFAULT_BIKETYPE" speed="4.40" pos="25.71" lane="-E2_1" slope="0.00"/>
        <vehicle id="f_2.0" x="17.12" y="42.49" angle="90.52" type="DEFAULT_VEHTYPE" speed="11.52" pos="64.56" lane="E0_2" slope="0.00"/>
        <vehicle id="f_2.1" x="-14.08" y="42.77" angle="90.52" type="DEFAULT_VEHTYPE" speed="9.20" pos="28.99" lane="E0_2" slope="0.00"/>
        <vehicle id="f_2.2" x="-32.92" y="42.94" angle="90.52" type="DEFAULT_VEHTYPE" speed="2.41" pos="7.51" lane="E0_2" slope="0.00"/>
        <vehicle id="f_20.0" x="103.50" y="52.13" angle="269.37" type="DEFAULT_VEHTYPE" speed="11.14" pos="63.29" lane="-E2_2" slope="0.00"/>
        <vehicle id="f_20.1" x="128.31" y="52.40" angle="269.37" type="DEFAULT_VEHTYPE" speed="9.51" pos="29.38" lane="-E2_2" slope="0.00"/>
        <vehicle id="f_20.2" x="144.30" y="52.58" angle="269.37" type="DEFAULT_VEHTYPE" speed="2.41" pos="7.51" lane="-E2_2" slope="0.00"/>
        <vehicle id="f_27.0" x="50.09" y="114.30" angle="179.45" type="DEFAULT_PEDTYPE" speed="1.50" pos="10.70" lane="-E1_0" slope="0.00"/>
        <vehicle id="f_28.0" x="51.26" y="104.02" angle="179.45" type="DEFAULT_BIKETYPE" speed="5.10" pos="27.97" lane="-E1_1" slope="0.00"/>
        <vehicle id="f_29.0" x="57.44" y="83.19" angle="179.45" type="DEFAULT_VEHTYPE" speed="11.40" pos="63.03" lane="-E1_2" slope="0.00"/>
        <vehicle id="f_29.1" x="57.25" y="103.21" angle="179.45" type="DEFAULT_VEHTYPE" speed="9.56" pos="29.42" lane="-E1_2" slope="0.00"/>
        <vehicle id="f_29.2" x="57.12" y="116.26" angle="179.45" type="DEFAULT_VEHTYPE" speed="2.41" pos="7.51" lane="-E1_2" slope="0.00"/>
    </timestep>
    <timestep time="8.00">
        <vehicle id="f_0.0" x="-29.07" y="35.86" angle="90.52" type="DEFAULT_PEDTYPE" speed="1.47" pos="11.98" lane="E0_0" slope="0.00"/>
        <vehicle id="f_1.0" x="-12.19" y="36.78" angle="90.52" type="DEFAULT_BIKETYPE" speed="4.66" pos="31.21" lane="E0_1" slope="0.00"/>
        <vehicle id="f_18.0" x="141.07" y="59.59" angle="269.37" type="DEFAULT_PEDTYPE" speed="1.45" pos="11.83" lane="-E2_0" slope="0.00"/>
        <vehicle id="f_19.0" x="127.71" y="58.37" angle="269.37" type="DEFAULT_BIKETYPE" speed="4.41" pos="30.12" lane="-E2_1" slope="0.00"/>
        <vehicle id="f_2.0" x="26.35" y="42.41" angle="90.52" type="DEFAULT_VEHTYPE" speed="10.52" pos="75.08" lane="E0_2" slope="0.00"/>
        <vehicle id="f_2.1" x="-5.02" y="42.69" angle="90.52" type="DEFAULT_VEHTYPE" speed="10.32" pos="39.32" lane="E0_2" slope="0.00"/>
        <vehicle id="f_2.2" x="-28.62" y="42.90" angle="90.52" type="DEFAULT_VEHTYPE" speed="4.91" pos="12.42" lane="E0_2" slope="0.00"/>
        <vehicle id="f_20.0" x="95.93" y="52.05" angle="269.37" type="DEFAULT_VEHTYPE" speed="10.35" pos="73.64" lane="-E2_2" slope="0.00"/>
        <vehicle id="f_20.1" x="120.23" y="52.32" angle="269.37" type="DEFAULT_VEHTYPE" speed="11.04" pos="40.42" lane="-E2_2" slope="0.00"/>
        <vehicle id="f_20.2" x="140.70" y="52.54" angle="269.37" type="DEFAULT_VEHTYPE" speed="4.92" pos="12.43" lane="-E2_2" slope="0.00"/>
        <vehicle id="f_27.0" x="50.10" y="113.41" angle="179.45" type="DEFAULT_PEDTYPE" speed="1.50" pos="12.21" lane="-E1_0" slope="0.00"/>
        <vehicle id="f_28.0" x="51.29" y="100.97" angle="179.45" type="DEFAULT_BIKETYPE" speed="5.13" pos="33.10" lane="-E1_1" slope="0.00"/>
        <vehicle id="f_29.0" x="57.50" y="76.35" angle="179.45" type="DEFAULT_VEHTYPE" speed="11.49" pos="74.52" lane="-E1_2" slope="0.00"/>
        <vehicle id="f_29.1" x="57.31" y="96.53" angle="179.45" type="DEFAULT_VEHTYPE" speed="11.22" pos="40.64" lane="-E1_2" slope="0.00"/>
        <vehicle id="f_29.2" x="57.15" y="113.33" angle="179.45" type="DEFAULT_VEHTYPE" speed="4.93" pos="12.44" lane="-E1_2" slope="0.00"/>
    </timestep>
    <timestep time="9.00">
        <vehicle id="f_0.0" x="-27.78" y="35.84" angle="90.52" type="DEFAULT_PEDTYPE" speed="1.47" pos="13.45" lane="E0_0" slope="0.00"/>
        <vehicle id="f_1.0" x="-8.10" y="36.74" angle="90.52" type="DEFAULT_BIKETYPE" speed="4.66" pos="35.87" lane="E0_1" slope="0.00"/>
        <vehicle id="f_18.0" x="140.00" y="59.58" angle="269.37" type="DEFAULT_PEDTYPE" speed="1.45" pos="13.28" lane="-E2_0" slope="0.00"/>
        <vehicle id="f_19.0" x="124.48" y="58.33" angle="269.37" type="DEFAULT_BIKETYPE" speed="4.41" pos="34.52" lane="-E2_1" slope="0.00"/>
        <vehicle id="f_2.0" x="33.94" y="42.34" angle="90.52" type="DEFAULT_VEHTYPE" speed="8.65" pos="83.73" lane="E0_2" slope="0.00"/>
        <vehicle id="f_2.1" x="4.39" y="42.60" angle="90.52" type="DEFAULT_VEHTYPE" speed="10.73" pos="50.04" lane="E0_2" slope="0.00"/>
        <vehicle id="f_2.2" x="-22.20" y="42.84" angle="90.52" type="DEFAULT_VEHTYPE" speed="7.32" pos="19.73" lane="E0_2" slope="0.00"/>
        <vehicle id="f_2.3" x="-35.04" y="42.96" angle="90.52" type="DEFAULT_VEHTYPE" speed="0.00" pos="5.10" lane="E0_2" slope="0.00"/>
        <vehicle id="f_20.0" x="89.47" y="51.98" angle="269.37" type="DEFAULT_VEHTYPE" speed="8.82" pos="82.47" lane="-E2_2" slope="0.00"/>
        <vehicle id="f_20.1" x="111.63" y="52.22" angle="269.37" type="DEFAULT_VEHTYPE" speed="11.76" pos="52.18" lane="-E2_2" slope="0.00"/>
        <vehicle id="f_20.2" x="135.33" y="52.48" angle="269.37" type="DEFAULT_VEHTYPE" speed="7.35" pos="19.78" lane="-E2_2" slope="0.00"/>
        <vehicle id="f_20.3" x="146.07" y="52.60" angle="269.37" type="DEFAULT_VEHTYPE" speed="0.00" pos="5.10" lane="-E2_2" slope="0.00"/>
        <vehicle id="f_27.0" x="50.11" y="112.51" angle="179.45" type="DEFAULT_PEDTYPE" speed="1.50" pos="13.71" lane="-E1_0" slope="0.00"/>
        <vehicle id="f_28.0" x="51.32" y="97.90" angle="179.45" type="DEFAULT_BIKETYPE" speed="5.15" pos="38.25" lane="-E1_1" slope="0.00"/>
        <vehicle id="f_29.0" x="57.57" y="69.48" angle="179.45" type="DEFAULT_VEHTYPE" speed="11.52" pos="86.05" lane="-E1_2" slope="0.00"/>
        <vehicle id="f_29.1" x="57.38" y="89.23" angle="179.45" type="DEFAULT_VEHTYPE" speed="12.25" pos="52.89" lane="-E1_2" slope="0.00"/>
        <vehicle id="f_29.2" x="57.19" y="108.92" angle="179.45" type="DEFAULT_VEHTYPE" speed="7.40" pos="19.84" lane="-E1_2" slope="0.00"/>
        <vehicle id="f_29.3" x="57.11" y="117.70" angle="179.45" type="DEFAULT_VEHTYPE" speed="0.00" pos="5.10" lane="-E1_2" slope="0.00"/>
    </timestep>
    <timestep time="10.00">
        <vehicle id="f_0.0" x="-26.49" y="35.83" angle="90.52" type="DEFAULT_PEDTYPE" speed="1.47" pos="14.92" lane="E0_0" slope="0.00"/>
        <vehicle id="f_1.0" x="-4.01" y="36.71" angle="90.52" type="DEFAULT_BIKETYPE" speed="4.66" pos="40.53" lane="E0_1" slope="0.00"/>
        <vehicle id="f_18.0" x="138.94" y="59.57" angle="269.37" type="DEFAULT_PEDTYPE" speed="1.45" pos="14.74" lane="-E2_0" slope="0.00"/>
        <vehicle id="f_19.0" x="121.26" y="58.30" angle="269.37" type="DEFAULT_BIKETYPE" speed="4.40" pos="38.93" lane="-E2_1" slope="0.00"/>
        <vehicle id="f_2.0" x="39.34" y="42.29" angle="90.52" type="DEFAULT_VEHTYPE" speed="6.15" pos="89.88" lane="E0_2" slope="0.00"/>
        <vehicle id="f_2.1" x="13.71" y="42.52" angle="90.52" type="DEFAULT_VEHTYPE" speed="10.63" pos="60.67" lane="E0_2" slope="0.00"/>
        <vehicle id="f_2.2" x="-13.94" y="42.77" angle="90.52" type="DEFAULT_VEHTYPE" speed="9.41" pos="29.15" lane="E0_2" slope="0.00"/>
        <vehicle id="f_2.3" x="-32.93" y="42.94" angle="90.52" type="DEFAULT_VEHTYPE" speed="2.41" pos="7.51" lane="E0_2" slope="0.00"/>
        <vehicle id="f_20.0" x="84.68" y="51.93" angle="269.37" type="DEFAULT_VEHTYPE" speed="6.55" pos="89.02" lane="-E2_2" slope="0.00"/>
        <vehicle id="f_20.1" x="103.18" y="52.13" angle="269.37" type="DEFAULT_VEHTYPE" speed="11.55" pos="63.74" lane="-E2_2" slope="0.00"/>
        <vehicle id="f_20.2" x="128.41" y="52.41" angle="269.37" type="DEFAULT_VEHTYPE" speed="9.46" pos="29.25" lane="-E2_2" slope="0.00"/>
        <vehicle id="f_20.3" x="144.31" y="52.58" angle="269.37" type="DEFAULT_VEHTYPE" speed="2.41" pos="7.51" lane="-E2_2" slope="0.00"/>
        <vehicle id="f_27.0" x="50.12" y="111.62" angle="179.45" type="DEFAULT_PEDTYPE" speed="1.50" pos="15.21" lane="-E1_0" slope="0.00"/>
        <vehicle id="f_28.0" x="51.35" y="94.83" angle="179.45" type="DEFAULT_BIKETYPE" speed="5.15" pos="43.40" lane="-E1_1" slope="0.00"/>
        <vehicle id="f_29.0" x="57.64" y="62.61" angle="179.45" type="DEFAULT_VEHTYPE" speed="11.54" pos="97.58" lane="-E1_2" slope="0.00"/>
        <vehicle id="f_29.1" x="57.45" y="81.66" angle="179.45" type="DEFAULT_VEHTYPE" speed="12.72" pos="65.61" lane="-E1_2" slope="0.00"/>
        <vehicle id="f_29.2" x="57.25" y="103.17" angle="179.45" type="DEFAULT_VEHTYPE" speed="9.66" pos="29.50" lane="-E1_2" slope="0.00"/>
        <vehicle id="f_29.3" x="57.12" y="116.27" angle="179.45" type="DEFAULT_VEHTYPE" speed="2.41" pos="7.51" lane="-E1_2" slope="0.00"/>
    </timestep>
    <timestep time="11.00">
        <vehicle id="f_0.0" x="-25.20" y="35.82" angle="90.52" type="DEFAULT_PEDTYPE" speed="1.47" pos="16.39" lane="E0_0" slope="0.00"/>
        <vehicle id="f_1.0" x="0.07" y="36.67" angle="90.52" type="DEFAULT_BIKETYPE" speed="4.65" pos="45.18" lane="E0_1" slope="0.00"/>
        <vehicle id="f_18.0" x="137.88" y="59.56" angle="269.37" type="DEFAULT_PEDTYPE" speed="1.45" pos="16.19" lane="-E2_0" slope="0.00"/>
        <vehicle id="f_19.0" x="118.04" y="58.26" angle="269.37" type="DEFAULT_BIKETYPE" speed="4.40" pos="43.33" lane="-E2_1" slope="0.00"/>
        <vehicle id="f_2.0" x="42.71" y="42.26" angle="90.52" type="DEFAULT_VEHTYPE" speed="3.84" pos="93.73" lane="E0_2" slope="0.00"/>
        <vehicle id="f_2.1" x="22.38" y="42.44" angle="90.52" type="DEFAULT_VEHTYPE" speed="9.89" pos="70.56" lane="E0_2" slope="0.00"/>
        <vehicle id="f_2.2" x="-4.37" y="42.68" angle="90.52" type="DEFAULT_VEHTYPE" speed="10.91" pos="40.06" lane="E0_2" slope="0.00"/>
        <vehicle id="f_2.3" x="-28.62" y="42.90" angle="90.52" type="DEFAULT_VEHTYPE" speed="4.91" pos="12.41" lane="E0_2" slope="0.00"/>
        <vehicle id="f_20.0" x="81.62" y="51.89" angle="269.37" type="DEFAULT_VEHTYPE" speed="4.19" pos="93.21" lane="-E2_2" slope="0.00"/>
        <vehicle id="f_20.1" x="95.80" y="52.05" angle="269.37" type="DEFAULT_VEHTYPE" speed="10.09" pos="73.83" lane="-E2_2" slope="0.00"/>
        <vehicle id="f_20.2" x="120.41" y="52.32" angle="269.37" type="DEFAULT_VEHTYPE" speed="10.93" pos="40.18" lane="-E2_2" slope="0.00"/>
        <vehicle id="f_20.3" x="140.71" y="52.54" angle="269.37" type="DEFAULT_VEHTYPE" speed="4.91" pos="12.42" lane="-E2_2" slope="0.00"/>
        <vehicle id="f_27.0" x="50.13" y="110.72" angle="179.45" type="DEFAULT_PEDTYPE" speed="1.50" pos="16.72" lane="-E1_0" slope="0.00"/>
        <vehicle id="f_28.0" x="51.38" y="91.77" angle="179.45" type="DEFAULT_BIKETYPE" speed="5.15" pos="48.55" lane="-E1_1" slope="0.00"/>
        <vehicle id="f_29.0" x="57.72" y="52.16" angle="179.54" type="DEFAULT_VEHTYPE" speed="11.43" pos="9.01" lane=":J1_26_0" slope="0.00"/>
        <vehicle id="f_29.1" x="57.53" y="74.00" angle="179.45" type="DEFAULT_VEHTYPE" speed="12.85" pos="78.46" lane="-E1_2" slope="0.00"/>
        <vehicle id="f_29.2" x="57.31" y="96.32" angle="179.45" type="DEFAULT_VEHTYPE" speed="11.50" pos="40.99" lane="-E1_2" slope="0.00"/>
        <vehicle id="f_29.3" x="57.15" y="113.34" angle="179.45" type="DEFAULT_VEHTYPE" speed="4.92" pos="12.43" lane="-E1_2" slope="0.00"/>
    </timestep>
    <timestep time="12.00">
        <vehicle id="f_0.0" x="-23.91" y="35.81" angle="90.52" type="DEFAULT_PEDTYPE" speed="1.47" pos="17.86" lane="E0_0" slope="0.00"/>
        <vehicle id="f_1.0" x="4.15" y="36.63" angle="90.52" type="DEFAULT_BIKETYPE" speed="4.65" pos="49.83" lane="E0_1" slope="0.00"/>
        <vehicle id="f_18.0" x="136.82" y="59.55" angle="269.37" type="DEFAULT_PEDTYPE" speed="1.45" pos="17.64" lane="-E2_0" slope="0.00"/>
        <vehicle id="f_19.0" x="114.82" y="58.23" angle="269.37" type="DEFAULT_BIKETYPE" speed="4.40" pos="47.73" lane="-E2_1" slope="0.00"/>
        <vehicle id="f_2.0" x="44.67" y="42.24" angle="90.52" type="DEFAULT_VEHTYPE" speed="2.23" pos="95.96" lane="E0_2" slope="0.00"/>
        <vehicle id="f_2.1" x="29.47" y="42.38" angle="90.52" type="DEFAULT_VEHTYPE" speed="8.08" pos="78.63" lane="E0_2" slope="0.00"/>
        <vehicle id="f_2.2" x="5.76" y="42.59" angle="90.52" type="DEFAULT_VEHTYPE" speed="11.55" pos="51.60" lane="E0_2" slope="0.00"/>
        <vehicle id="f_2.3" x="-22.22" y="42.84" angle="90.52" type="DEFAULT_VEHTYPE" speed="7.30" pos="19.71" lane="E0_2" slope="0.00"/>
        <vehicle id="f_2.4" x="-35.04" y="42.96" angle="90.52" type="DEFAULT_VEHTYPE" speed="0.00" pos="5.10" lane="E0_2" slope="0.00"/>
        <vehicle id="f_20.0" x="79.82" y="51.87" angle="269.37" type="DEFAULT_VEHTYPE" speed="2.46" pos="95.67" lane="-E2_2" slope="0.00"/>
        <vehicle id="f_20.1" x="90.42" y="52.99" angle="274.01" type="DEFAULT_VEHTYPE" speed="7.33" pos="81.16" lane="-E2_2" slope="0.00"/>
        <vehicle id="f_20.2" x="111.94" y="52.23" angle="269.37" type="DEFAULT_VEHTYPE" speed="11.59" pos="51.76" lane="-E2_2" slope="0.00"/>
        <vehicle id="f_20.3" x="135.36" y="52.48" angle="269.37" type="DEFAULT_VEHTYPE" speed="7.31" pos="19.74" lane="-E2_2" slope="0.00"/>
        <vehicle id="f_20.4" x="146.07" y="52.60" angle="269.37" type="DEFAULT_VEHTYPE" speed="0.00" pos="5.10" lane="-E2_2" slope="0.00"/>
        <vehicle id="f_27.0" x="50.13" y="109.82" angle="179.45" type="DEFAULT_PEDTYPE" speed="1.50" pos="18.22" lane="-E1_0" slope="0.00"/>
        <vehicle id="f_28.0" x="51.41" y="88.70" angle="179.45" type="DEFAULT_BIKETYPE" speed="5.15" pos="53.70" lane="-E1_1" slope="0.00"/>
        <vehicle id="f_29.0" x="57.82" y="40.79" angle="179.54" type="DEFAULT_VEHTYPE" speed="11.37" pos="20.38" lane=":J1_26_0" slope="0.00"/>
        <vehicle id="f_29.1" x="57.60" y="66.39" angle="179.45" type="DEFAULT_VEHTYPE" speed="12.77" pos="91.23" lane="-E1_2" slope="0.00"/>
        <vehicle id="f_29.2" x="57.39" y="88.72" angle="179.45" type="DEFAULT_VEHTYPE" speed="12.75" pos="53.74" lane="-E1_2" slope="0.00"/>
        <vehicle id="f_29.3" x="57.19" y="108.98" angle="179.45" type="DEFAULT_VEHTYPE" speed="7.31" pos="19.74" lane="-E1_2" slope="0.00"/>
        <vehicle id="f_29.4" x="57.11" y="117.70" angle="179.45" type="DEFAULT_VEHTYPE" speed="0.00" pos="5.10" lane="-E1_2" slope="0.00"/>
    </timestep>
    <timestep time="13.00">
        <vehicle id="f_0.0" x="-22.62" y="35.80" angle="90.52" type="DEFAULT_PEDTYPE" speed="1.47" pos="19.34" lane="E0_0" slope="0.00"/>
        <vehicle id="f_1.0" x="8.22" y="36.60" angle="90.52" type="DEFAULT_BIKETYPE" speed="4.64" pos="54.47" lane="E0_1" slope="0.00"/>
        <vehicle id="f_18.0" x="135.76" y="59.54" angle="269.37" type="DEFAULT_PEDTYPE" speed="1.45" pos="19.09" lane="-E2_0" slope="0.00"/>
        <vehicle id="f_19.0" x="111.61" y="58.19" angle="269.37" type="DEFAULT_BIKETYPE" speed="4.39" pos="52.12" lane="-E2_1" slope="0.00"/>
        <vehicle id="f_2.0" x="45.78" y="42.23" angle="90.52" type="DEFAULT_VEHTYPE" speed="1.27" pos="97.23" lane="E0_2" slope="0.00"/>
        <vehicle id="f_2.1" x="34.30" y="41.34" angle="95.95" type="DEFAULT_VEHTYPE" speed="5.51" pos="84.15" lane="E0_2" slope="0.00"/>
        <vehicle id="f_2.2" x="15.37" y="42.51" angle="90.52" type="DEFAULT_VEHTYPE" speed="10.96" pos="62.57" lane="E0_2" slope="0.00"/>
        <vehicle id="f_2.3" x="-14.04" y="42.77" angle="90.52" type="DEFAULT_VEHTYPE" speed="9.32" pos="29.04" lane="E0_2" slope="0.00"/>
        <vehicle id="f_2.4" x="-32.93" y="42.94" angle="90.52" type="DEFAULT_VEHTYPE" speed="2.41" pos="7.51" lane="E0_2" slope="0.00"/>
        <vehicle id="f_20.0" x="78.80" y="51.86" angle="269.37" type="DEFAULT_VEHTYPE" speed="1.39" pos="97.06" lane="-E2_2" slope="0.00"/>
        <vehicle id="f_20.1" x="87.11" y="53.95" angle="275.37" type="DEFAULT_VEHTYPE" speed="4.52" pos="85.68" lane="-E2_2" slope="0.00"/>
        <vehicle id="f_20.2" x="103.95" y="52.14" angle="269.37" type="DEFAULT_VEHTYPE" speed="10.91" pos="62.67" lane="-E2_2" slope="0.00"/>
        <vehicle id="f_20.3" x="128.52" y="52.41" angle="269.37" type="DEFAULT_VEHTYPE" speed="9.36" pos="29.09" lane="-E2_2" slope="0.00"/>
        <vehicle id="f_20.4" x="144.31" y="52.58" angle="269.37" type="DEFAULT_VEHTYPE" speed="2.41" pos="7.51" lane="-E2_2" slope="0.00"/>
        <vehicle id="f_27.0" x="50.14" y="108.93" angle="179.45" type="DEFAULT_PEDTYPE" speed="1.50" pos="19.73" lane="-E1_0" slope="0.00"/>
        <vehicle id="f_28.0" x="51.44" y="85.63" angle="179.45" type="DEFAULT_BIKETYPE" speed="5.15" pos="58.85" lane="-E1_1" slope="0.00"/>